ITEM: TIMESTEP
2601000
ITEM: NUMBER OF ATOMS
42426
ITEM: BOX BOUNDS pp pp pp
-100.0 100.0
-100.0 100.0
-25.0 25.0
ITEM: ATOMS id type x y z
1 1 -39.779 -44.778 -20.20231
2 1 -39.8088 -46.1666 -19.87095
3 1 -37.9818 -38.269 -24.8246965
4 1 -37.6384 -44.1946 -20.698225
5 1 -37.6378 -46.739 -20.727605
6 1 -39.564 -45.6298 -24.200165
7 1 -37.1264 -45.5452 -21.049645
8 1 -36.1924 -45.6232 -22.314735
9 1 -35.7216 -44.1268 -22.373145
10 1 -35.7414 -46.579 -23.045055
11 1 -34.1852 -44.256 -22.6459
12 1 -34.1706 -46.4678 -23.50356
13 1 -33.3946 -45.4398 -23.14378
14 1 -32.2062 -45.1372 -23.212835
15 1 -31.4502 -46.3438 -23.55812
16 1 -31.4294 -44.2242 -22.54669
17 1 -30.2556 -44.4688 -22.121385
18 1 -30.1138 -46.6504 -23.062365
19 1 -29.5502 -45.5022 -22.57922
20 1 -27.9168 -44.4956 -21.16588
21 1 -28.4052 -45.4512 -21.875475
22 1 -26.3872 -46.7818 -21.79241
23 1 -26.3716 -44.7174 -20.719655
24 1 -25.7364 -45.5844 -21.43635
25 1 -27.5136 -46.7714 -22.2634
26 1 -28.9898 -42.5012 -17.0718
27 1 -39.9972 -37.8786 -19.64485
28 1 -38.9426 -43.8462 -20.85832
29 1 -39.071 -42.611 -21.586385
30 1 -38.1696 -41.4004 -21.331855
31 1 -38.4868 -38.4126 -23.488495
32 1 -38.6556 -40.197 -21.95301
33 1 -39.9148 -38.6222 -23.454365
34 1 -37.7116 -39.3822 -22.820315
35 1 -36.5582 -43.265 -21.53963
36 1 -33.6814 -43.1468 -22.107715
37 1 -32.2834 -43.0554 -22.11261
38 1 -36.7448 -42.0876 -21.243235
39 1 -36.4908 -38.9896 -22.222755
40 1 -35.527 -39.8432 -21.91753
41 1 -35.6512 -41.5078 -21.68421
42 1 -34.2818 -39.5702 -21.942105
43 1 -34.2154 -41.8286 -22.094335
44 1 -34.2606 -38.1196 -22.41997
45 1 -33.5358 -40.5038 -22.303075
46 1 -32.3212 -40.402 -22.123945
47 1 -31.8626 -38.3594 -23.03331
48 1 -31.4794 -39.5548 -22.467835
49 1 -33.4568 -38.66 -19.0732
50 1 -31.6524 -41.7918 -21.95316
51 1 -38.266 -45.9094 -24.346365
52 1 -32.485 -37.5106 -19.10185
53 1 -28.142 -37.796 -22.43268
54 1 -25.7412 -43.3766 -20.932655
55 1 -28.5854 -43.2502 -20.942885
56 1 -29.9238 -43.2222 -21.52338
57 1 -30.2472 -41.895 -21.67305
58 1 -30.008 -39.488 -22.170945
59 1 -29.5096 -40.8158 -21.5675
60 1 -29.3534 -38.4458 -22.47164
61 1 -26.4922 -42.1704 -21.07672
62 1 -27.8442 -42.0326 -20.57472
63 1 -28.1892 -40.6824 -21.12625
64 1 -27.08 -40.0902 -21.45104
65 1 -26.032 -38.533 -22.948325
66 1 -27.0214 -38.7968 -21.941335
67 1 -26.0476 -41.2776 -22.043405
68 1 -29.0816 -43.8018 -16.99135
69 1 -28.8426 -37.8774 -18.6567
70 1 -29.5388 -39.0906 -18.4424
71 1 -31.0212 -37.6928 -18.8065
72 1 -27.3242 -37.7844 -18.8995
73 1 -27.823 -41.9656 -17.8343
74 1 -30.6466 -37.7618 -23.13606
75 1 -39.8884 -46.9712 -16.62425
76 1 -39.6324 -44.586 -15.62005
77 1 -39.0534 -45.7644 -16.0702
78 1 -38.4554 -43.6806 -15.68635
79 1 -37.7544 -45.9084 -15.7622
80 1 -32.094 -46.8246 -13.65495
81 1 -37.3284 -44.5714 -15.39375
82 1 -32.8104 -43.9198 -15.8283
83 1 -32.9696 -46.1464 -16.67505
84 1 -35.7628 -44.448 -15.73205
85 1 -33.5462 -45.265 -15.9607
86 1 -35.0964 -46.9952 -16.4504
87 1 -34.9928 -45.6426 -16.0752
88 1 -31.4584 -46.6684 -17.0107
89 1 -31.545 -45.6048 -13.4722
90 2 -29.2242 -44.7854 -12.914
91 1 -25.034 -38.3802 -18.7012
92 1 -26.0506 -43.7692 -17.8082
93 1 -26.8738 -44.8492 -17.3864
94 1 -26.218 -46.2632 -17.4686
95 1 -29.0706 -46.2276 -17.3272
96 1 -28.343 -44.9268 -17.3269
97 1 -30.3378 -44.3318 -16.80555
98 1 -30.271 -45.903 -17.00765
99 1 -30.2044 -45.8804 -13.4518
100 1 -27.0426 -46.174 -13.05135
101 2 -27.9104 -45.0586 -12.61625
102 1 -25.5798 -45.9902 -12.6245
103 1 -35.632 -37.691 -19.51475
104 2 -39.5626 -38.139 -13.293
105 1 -39.159 -39.0002 -19.1775
106 1 -39.7948 -39.6282 -18.0192
107 1 -38.5598 -42.5734 -16.4123
108 1 -39.0474 -40.6618 -17.7943
109 1 -39.562 -41.8174 -17.028
110 2 -38.2528 -38.3272 -12.8557
111 1 -29.8658 -41.3252 -17.6162
112 1 -28.9952 -40.2734 -18.0049
113 1 -36.9594 -37.8024 -19.762
114 1 -36.3498 -37.5876 -22.424405
115 1 -30.9118 -39.109 -18.51225
116 1 -37.8404 -38.7234 -18.9002
117 1 -37.6918 -40.5728 -17.64945
118 1 -34.8262 -38.6334 -18.71715
119 1 -32.984 -39.6036 -18.1533
120 1 -31.8164 -39.9586 -18.1913
121 1 -31.3688 -43.483 -16.46625
122 1 -26.558 -42.3576 -17.99735
123 1 -33.8678 -40.7862 -17.5107
124 1 -36.8992 -39.506 -18.235
125 1 -35.45 -39.6468 -18.17185
126 1 -35.311 -43.1558 -15.77535
127 1 -31.9412 -42.4586 -17.33635
128 1 -33.9314 -42.9918 -16.18205
129 1 -35.8666 -42.001 -16.9247
130 1 -37.194 -41.8162 -16.999
131 1 -35.1356 -40.7384 -17.06685
132 1 -33.1498 -41.8904 -16.77865
133 1 -31.2462 -41.1894 -17.56825
134 1 -26.314 -38.6886 -18.6776
135 1 -25.5862 -41.2746 -18.7209
136 1 -27.6536 -40.518 -18.1583
137 1 -26.4656 -40.2234 -18.5177
138 2 -33.8158 -44.5128 -12.57465
139 1 -34.3616 -46.9064 -12.75525
140 2 -32.2288 -44.552 -12.72195
141 1 -28.6156 -40.8812 -24.9934191
142 1 -28.6416 -38.5604 -24.9902478
143 2 -25.1328 -40.262 -11.12635
144 2 -37.8888 -41.7266 -12.1715
145 1 -39.2346 -46.9706 -8.40595
146 1 -39.2994 -44.871 -8.37765
147 1 -37.7658 -44.7138 -8.02435
148 1 -39.8686 -46.123 -9.01785
149 1 -37.92 -46.1234 -10.8851
150 1 -38.5124 -44.8708 -11.1331
151 2 -36.8344 -45.7384 -7.7112
152 1 -35.8076 -44.7198 -7.3671
153 2 -34.5786 -45.4184 -7.641
154 1 -34.704 -46.8628 -8.00195
155 2 -33.208 -4.0 -7.5703
156 1 -32.0532 -45.6674 -7.6704
157 1 -36.0062 -45.431 -12.10895
158 1 -36.8638 -46.3938 -11.75385
159 2 -36.549 -44.0314 -11.7838
160 1 -34.6842 -45.5522 -12.4358
161 2 -27.6094 -37.731 -11.1567
162 2 -37.8446 -43.7912 -11.37785
163 2 -36.4802 -41.7158 -12.3291
164 2 -31.1014 -44.7306 -7.38715
165 2 -29.5418 -44.785 -7.4681
166 1 -28.9968 -45.786 -8.017
167 2 -26.9374 -44.7522 -8.52635
168 2 -25.5218 -44.6334 -8.92375
169 1 -27.7182 -45.9892 -8.41115
170 2 -25.0608 -39.5448 -0.0587
171 1 -39.8918 -43.6468 -8.1142
172 1 -39.9326 -41.1404 -8.39985
173 1 -39.9856 -38.695 -8.7065
174 2 -37.8556 -39.8502 -8.3226
175 2 -39.2912 -39.8972 -8.28765
176 2 -38.0078 -42.4126 -8.37535
177 2 -39.3634 -42.3604 -8.35475
178 2 -37.38 -43.3232 -7.6982
179 2 -37.3222 -41.2178 -8.41675
180 2 -37.0936 -38.719 -8.29395
181 2 -34.4166 -43.2372 -12.3903
182 2 -32.3324 -42.3758 -12.11065
183 2 -33.0008 -43.3902 -7.20355
184 2 -36.0152 -43.2986 -7.4231
185 2 -31.638 -43.3518 -7.1394
186 2 -35.8922 -41.2306 -8.4628
187 2 -35.7488 -38.6384 -8.141
188 2 -35.2072 -39.98 -8.0712
189 2 -35.2508 -42.0966 -7.73185
190 2 -33.8432 -42.3178 -7.27545
191 2 -33.8032 -39.8998 -8.2857
192 2 -33.027 -41.2036 -7.9074
193 2 -31.7068 -41.1054 -7.928
194 2 -33.237 -38.7904 -7.72815
195 2 -31.7632 -38.6384 -7.90715
196 2 -34.1026 -38.4614 -12.0199
197 2 -34.5932 -40.972 -11.4713
198 2 -25.5178 -37.68 -7.74805
199 2 -32.016 -39.95 -11.74825
200 2 -35.8658 -43.0144 -12.4529
201 2 -33.815 -39.816 -11.7324
202 2 -31.4782 -41.1442 -11.71465
203 2 -25.043 -42.0946 -0.57725
204 2 -35.4852 -38.3802 -12.20595
205 2 -26.9786 -39.1032 -3.50245
206 2 -29.0386 -40.2196 -11.4128
207 2 -31.1172 -39.9482 -7.9622
208 2 -30.994 -42.0998 -7.4341
209 2 -25.6984 -41.2596 -11.86345
210 2 -31.1526 -39.0604 -11.654
211 2 -25.724 -39.008 -11.19625
212 2 -27.706 -43.4898 -8.1826
213 2 -29.0726 -43.469 -7.81155
214 2 -29.7708 -40.0532 -7.74325
215 2 -29.657 -42.4502 -7.26345
216 2 -28.9882 -41.3002 -7.46205
217 2 -29.205 -38.839 -7.7474
218 2 -26.9804 -42.3666 -7.8246
219 2 -27.6474 -41.206 -7.46095
220 2 -25.7294 -40.1186 -7.737
221 2 -27.1108 -40.0292 -7.92855
222 2 -25.65 -42.4418 -8.3608
223 2 -27.8056 -38.6514 -7.81005
224 2 -27.1082 -38.844 -11.00605
225 2 -27.8822 -42.5076 -12.14185
226 2 -26.9406 -41.6562 -3.88185
227 2 -27.6916 -40.1144 -11.36355
228 2 -29.8896 -41.338 -11.6792
229 2 -27.0658 -41.4902 -11.6124
230 2 -29.8448 -38.952 -11.27725
231 2 -29.3754 -42.628 -12.18265
232 2 -26.8992 -37.5728 -7.7424
233 2 -35.8746 -40.7558 -11.9569
234 1 -39.8622 -44.6466 -0.40425
235 2 -35.1082 -37.7856 -7.56465
236 2 -31.8752 -37.7678 -11.9806
237 2 -37.6658 -45.5746 -0.69275
238 2 -39.8854 -44.2278 -4.0607
239 2 -39.0468 -45.728 -0.37755
240 2 -29.8538 -39.3782 -4.1128
241 1 -37.8292 -46.5562 -4.7538
242 2 -38.3578 -44.0062 -4.43405
243 2 -31.1886 -41.3504 -3.3948
244 2 -27.8386 -37.813 -3.5465
245 2 -37.6082 -45.1726 -4.6699
246 2 -32.2162 -45.0922 -3.3744
247 2 -33.399 -45.365 -3.7721
248 1 -34.1628 -46.4912 -3.84625
249 2 -36.219 -45.2188 -4.31815
250 1 -35.5968 -46.4188 -3.94365
251 2 -35.6774 -44.2144 -0.5904
252 2 -37.1106 -44.304 -0.81675
253 1 -37.107 -46.9812 -0.89205
254 1 -35.7292 -46.4382 -1.1604
255 2 -29.8814 -41.6726 -3.38285
256 2 -34.869 -45.1906 -1.145
257 1 -33.3874 -46.735 -0.58035
258 2 -33.5552 -45.3456 -0.57695
259 2 -29.9246 -44.1244 -3.37435
260 2 -25.7078 -38.826 -3.9841
261 2 -38.496 -40.3898 -12.36515
262 1 -31.3862 -46.397 -3.08885
263 1 -25.4558 -46.1828 -4.13005
264 1 -26.8842 -46.2172 -4.09775
265 2 -29.1654 -45.4022 -3.3694
266 2 -27.762 -45.2732 -3.95365
267 1 -30.1782 -46.2126 -3.81675
268 2 -31.5202 -44.073 -3.3395
269 2 -26.9796 -43.99 -3.81245
270 2 -25.445 -43.9632 -3.8363
271 2 -29.2434 -37.9828 -3.748
272 2 -25.5826 -41.471 -4.18565
273 2 -36.3602 -39.3578 -12.06985
274 2 -27.6134 -42.8734 -3.7105
275 2 -28.9472 -40.4282 -3.8324
276 2 -39.2394 -43.2958 -0.89665
277 1 -39.904 -39.7586 -1.55915
278 2 -38.0396 -39.2388 -4.9406
279 2 -39.3968 -39.385 -5.114
280 2 -38.2982 -41.6674 -4.1585
281 2 -39.6884 -41.8434 -4.22075
282 2 -39.2272 -38.3852 -1.41355
283 2 -39.1296 -40.9874 -1.3783
284 2 -37.8228 -43.3082 -0.3924
285 1 -39.7378 -42.0864 -1.2725
286 2 -39.9428 -38.28 -5.55655
287 2 -37.9064 -38.3876 -1.1418
288 2 -37.8152 -40.7994 -0.83295
289 2 -36.1076 -37.764 -4.0089
290 2 -27.6852 -40.2356 -3.6275
291 2 -33.1552 -37.9444 -4.71105
292 2 -37.46 -38.0758 -4.43925
293 2 -35.4932 -43.9546 -4.011
294 2 -37.6144 -42.792 -3.9333
295 2 -34.1102 -44.0852 -3.92095
296 2 -37.2502 -41.9886 -0.344
297 2 -35.8334 -39.607 -0.51545
298 2 -31.1368 -39.1002 -4.28655
299 2 -37.5348 -40.2542 -4.2948
300 2 -31.7128 -37.8614 -4.64565
301 2 -33.918 -39.0218 -4.18925
302 2 -35.458 -39.0358 -3.9465
303 2 -35.435 -41.5144 -3.8016
304 2 -33.8252 -41.467 -3.7484
305 2 -33.4436 -42.7998 -3.8861
306 2 -32.0308 -42.752 -3.5556
307 2 -36.1078 -40.1654 -3.8592
308 2 -33.2552 -40.2928 -4.03065
309 2 -31.808 -40.3274 -3.79805
310 2 -36.0206 -42.6288 -4.01225
311 2 -37.0702 -39.5088 -1.2309
312 2 -29.2622 -42.8604 -3.49475
313 2 -39.0992 -37.6394 -8.85125
314 2 -37.6392 -37.5594 -8.42745
315 2 -25.0518 -44.6876 -12.279
316 2 -25.0114 -40.0306 -4.57345
317 2 -25.6378 -43.2706 -0.2214
318 2 -25.0608 -41.2936 -7.97155
319 2 -35.3048 -38.4754 -0.29495
320 2 -29.037 -37.8084 -11.58295
321 2 -38.8312 -42.6064 -11.51185
322 2 -37.7538 -39.1954 -12.06975
323 2 -31.1264 -38.4178 -0.0798
324 2 -33.7268 -42.1366 -11.8424
325 2 -29.1152 -41.7458 -0.0722
326 2 -29.714 -38.3584 -0.00165
327 2 -33.8492 -38.3266 -0.2131
328 2 -30.0142 -43.7738 -12.2744
329 2 -27.2236 -43.8528 -12.20675
330 2 -25.8188 -43.497 -12.21685
331 2 -31.3844 -43.3644 -12.37865
332 2 -39.9054 -40.234 -12.4497
333 2 -32.2206 -39.4554 0.45625
334 2 -25.5512 -38.3574 0.13275
335 1 -25.4428 -38.17 8.6228
336 2 -34.0752 -37.5076 3.4459
337 1 -39.5776 -46.8178 2.8699
338 1 -38.18 -46.9946 3.33165
339 2 -39.6484 -44.2276 2.5953
340 2 -38.2834 -44.0732 3.06095
341 2 -37.0674 -46.1328 3.68105
342 2 -37.1772 -44.7004 3.70565
343 1 -35.8068 -46.7232 3.6877
344 2 -34.6314 -46.4038 4.14695
345 2 -34.1262 -45.0926 3.8703
346 2 -32.9552 -44.7842 4.6481
347 2 -31.9214 -45.6384 4.8068
348 1 -32.3714 -46.8412 4.71755
349 2 -34.8218 -43.8008 3.7616
350 2 -31.6248 -44.4384 0.62925
351 2 -25.5024 -40.9088 0.11175
352 1 -28.0394 -39.1614 9.6242
353 2 -30.8278 -45.7274 0.94385
354 2 -29.1024 -44.1164 0.2658
355 2 -25.3914 -45.6014 0.17345
356 1 -27.122 -46.5994 1.08265
357 2 -25.7076 -44.5052 4.23085
358 2 -26.6342 -45.6294 0.1814
359 2 -27.6158 -44.3154 0.1885
360 1 -28.4994 -46.3962 1.5374
361 2 -29.5198 -45.4408 0.9375
362 2 -29.8014 -44.5948 4.63855
363 2 -28.407 -44.562 4.35805
364 2 -26.3532 -45.8152 4.49665
365 2 -27.6172 -45.63 4.8907
366 2 -30.6208 -45.4308 5.3281
367 1 -28.4452 -46.8768 5.5508
368 1 -29.8802 -46.5008 5.51675
369 2 -27.0698 -43.0994 0.1346
370 2 -37.9252 -42.6994 3.25805
371 2 -39.4846 -40.3856 2.964
372 2 -39.1394 -41.9312 2.79995
373 2 -38.528 -38.552 2.3005
374 2 -38.2092 -39.7502 3.04095
375 1 -25.236 -41.0592 11.161
376 2 -36.2368 -43.6788 4.09955
377 2 -32.104 -43.5308 4.6945
378 1 -27.934 -37.8956 9.0804
379 1 -28.4502 -43.256 11.55465
380 2 -36.8834 -39.853 3.76005
381 2 -36.7918 -42.4244 3.9055
382 2 -36.1416 -41.2282 3.8615
383 2 -36.2186 -38.7754 3.1898
384 2 -34.8264 -41.268 3.7291
385 2 -34.822 -38.7364 3.35315
386 2 -34.0512 -42.575 3.6917
387 2 -34.1384 -40.037 3.5509
388 2 -32.7152 -42.3242 4.42435
389 2 -32.7982 -39.9318 3.5567
390 2 -31.9676 -41.0446 4.45605
391 2 -32.2188 -38.6998 3.80385
392 2 -31.7962 -41.9012 0.4525
393 2 -26.9788 -38.1398 0.433
394 2 -33.4654 -39.4864 0.03855
395 2 -26.8614 -40.666 0.5845
396 2 -30.6336 -43.4324 4.6471
397 2 -27.8904 -43.4032 4.0236
398 2 -29.9148 -37.5496 4.19945
399 2 -26.3606 -43.3022 3.89545
400 2 -27.7508 -41.7712 0.4027
401 1 -30.1258 -38.0872 7.9873
402 2 -33.9922 -40.841 0.0013
403 1 -35.3256 -37.8114 6.29035
404 2 -30.8964 -38.7588 4.23315
405 2 -30.6428 -40.9718 5.04545
406 2 -30.1108 -39.7366 4.6665
407 2 -28.5532 -39.7624 4.56955
408 2 -25.6774 -42.1294 3.7869
409 2 -27.865 -38.5348 4.44655
410 2 -27.834 -40.8956 4.5934
411 2 -26.5088 -38.565 4.163
412 2 -29.8934 -42.2044 4.71095
413 2 -28.5918 -42.1762 4.2884
414 2 -26.4234 -41.0044 4.20475
415 2 -25.846 -39.797 4.0172
416 2 -29.827 -42.9106 0.4432
417 2 -29.8718 -40.51 0.0106
418 1 -30.6476 -40.1988 9.42275
419 1 -29.1988 -42.181 11.08135
420 2 -31.387 -40.6306 0.2265
421 2 -31.1096 -43.1558 0.90975
422 2 -28.963 -39.465 0.335
423 2 -33.1742 -41.9146 0.4551
424 1 -38.861 -46.8378 11.1863
425 1 -38.4172 -45.577 11.888
426 1 -37.7408 -44.617 11.0259
427 1 -36.2818 -44.6862 10.58295
428 1 -35.6338 -45.8706 11.0485
429 1 -34.3408 -45.6116 11.169
430 1 -33.2912 -46.5234 10.7593
431 1 -32.1354 -45.721 10.7395
432 1 -33.8028 -44.2044 10.8632
433 1 -32.2958 -44.2228 10.518
434 1 -31.2196 -46.189 11.68155
435 1 -30.6018 -42.579 10.411
436 1 -26.7846 -39.6518 10.01135
437 1 -25.4664 -39.0056 9.5108
438 1 -30.5612 -45.1244 11.8131
439 1 -27.3368 -42.461 12.1408
440 1 -39.7662 -37.8126 6.5426
441 1 -38.5938 -38.524 6.64645
442 1 -29.074 -44.7164 11.75645
443 1 -38.8726 -39.5908 7.8554
444 1 -38.7548 -41.5114 8.69765
445 1 -39.2438 -42.9608 11.5084
446 1 -39.5554 -41.6228 11.08535
447 1 -39.831 -41.0608 9.78305
448 1 -38.1166 -40.7274 7.9112
449 1 -38.2914 -43.4906 10.46985
450 1 -38.122 -42.6072 9.3727
451 1 -31.3596 -41.4806 9.6177
452 1 -35.7794 -43.5846 9.9271
453 1 -34.5242 -43.0246 10.3587
454 1 -31.1056 -43.7182 10.8445
455 1 -37.715 -38.069 5.74645
456 1 -36.4124 -38.508 6.53845
457 1 -33.9476 -42.3194 9.2595
458 1 -36.0874 -41.9268 7.92895
459 1 -36.7022 -42.7708 9.00595
460 1 -32.409 -41.934 8.8595
461 1 -33.831 -41.008 7.49975
462 1 -32.0136 -39.5502 7.62355
463 1 -35.9024 -39.8512 6.86145
464 1 -32.6452 -38.366 6.9202
465 1 -34.0404 -38.4384 6.93475
466 1 -34.7678 -41.9884 8.1568
467 1 -36.7596 -40.9004 7.3575
468 1 -32.4408 -40.835 7.90205
469 1 -34.5734 -39.8886 7.0291
470 1 -28.7172 -40.8328 10.8817
471 1 -30.5948 -39.4902 8.132
472 1 -27.5626 -41.028 11.85205
473 1 -26.4512 -40.243 11.3521
474 1 -29.356 -40.0678 9.85395
475 2 -27.553 -39.387 0.4177
476 1 -26.0552 -43.0078 12.32325
477 2 -33.7758 -43.0754 0.0733
478 2 -35.8486 -42.0114 0.07765
479 2 -35.1942 -43.1064 0.0443
480 2 -35.4102 -40.7148 0.0409
481 2 -32.8818 -44.2104 0.11155
482 1 -38.8536 -45.7956 17.165
483 1 -39.4628 -46.8934 17.56095
484 1 -39.5066 -44.8038 16.3998
485 1 -30.6284 -41.5868 24.45465
486 1 -38.5006 -46.7388 14.3175
487 1 -37.4746 -45.4748 17.5839
488 1 -38.4492 -44.1806 13.6289
489 1 -37.8374 -43.4766 14.87325
490 1 -39.0304 -43.4186 16.187
491 1 -38.3836 -45.4718 13.37785
492 1 -25.0108 -44.5334 17.7576
493 1 -29.9616 -39.1272 24.62625
494 1 -34.208 -45.0266 15.6995
495 1 -33.2216 -45.7978 15.5128
496 1 -31.8574 -45.0878 15.50805
497 1 -36.4246 -44.014 15.27955
498 1 -35.7566 -45.2908 15.50345
499 1 -36.2236 -46.5602 15.26535
500 1 -27.2722 -41.4046 19.94225
501 1 -28.3536 -40.8874 20.02855
502 1 -36.761 -46.2994 18.4312
503 1 -26.1346 -44.3382 12.98885
504 1 -25.5892 -46.444 14.2215
505 1 -26.6634 -45.4524 13.7083
506 1 -30.4716 -45.3332 15.361
507 1 -30.6336 -46.3724 14.343
508 1 -29.2386 -44.7274 16.13895
509 1 -29.361 -46.7836 13.8212
510 1 -28.649 -45.1694 17.24085
511 1 -27.2648 -44.8842 16.94835
512 1 -26.577 -45.9778 17.2361
513 1 -28.1254 -45.7956 13.9422
514 1 -28.8042 -46.7036 17.54445
515 1 -28.6664 -45.1208 12.9709
516 1 -25.351 -46.0642 17.79115
517 1 -26.7652 -41.9114 24.34245
518 1 -29.208 -38.4778 19.9971
519 1 -39.4966 -42.26 16.32725
520 1 -39.1946 -40.035 17.18775
521 1 -39.4278 -38.7044 14.52
522 1 -38.9262 -40.6682 16.0761
523 1 -38.6322 -39.9144 14.6414
524 1 -39.0672 -37.6084 15.33965
525 1 -39.4438 -40.7042 13.35085
526 1 -38.9298 -42.0498 13.44085
527 1 -37.8802 -42.0588 14.52925
528 1 -39.2088 -39.0808 18.10015
529 1 -38.1354 -37.669 16.1304
530 1 -37.1936 -39.9052 15.0926
531 1 -38.9164 -37.797 17.41305
532 1 -39.1298 -43.2202 12.8313
533 1 -26.9344 -38.4406 20.44085
534 1 -31.0262 -38.5546 23.90235
535 1 -34.2796 -43.592 15.874
536 1 -31.8924 -43.667 15.5055
537 1 -35.5694 -43.26 15.8801
538 1 -36.978 -41.4194 15.21375
539 1 -33.0636 -42.9272 15.3076
540 1 -36.2692 -38.8562 15.0862
541 1 -34.7612 -41.1308 15.33485
542 1 -33.3374 -41.6518 15.37475
543 1 -34.9856 -39.5892 15.1971
544 1 -33.7174 -39.0812 15.2693
545 1 -33.704 -37.6846 15.6495
546 1 -32.805 -40.3602 15.59855
547 1 -35.6382 -42.1096 15.33385
548 1 -31.4992 -40.389 15.5098
549 1 -25.5544 -38.2294 24.01405
550 1 -31.2446 -37.649 16.21005
551 1 -27.941 -41.9358 25.0115
552 1 -34.4186 -37.8028 18.68685
553 1 -26.746 -43.8152 16.47615
554 1 -25.2798 -43.6146 16.6311
555 1 -25.008 -41.6046 15.44405
556 1 -29.5674 -43.377 15.7369
557 1 -30.8556 -39.0258 15.70265
558 1 -30.682 -42.9856 15.45075
559 1 -28.4376 -42.5152 15.40825
560 1 -27.0974 -42.6764 15.8699
561 1 -30.6954 -41.6058 15.28385
562 1 -29.356 -38.9754 15.8991
563 1 -26.2782 -41.682 15.94925
564 1 -29.1754 -41.3452 15.3741
565 1 -28.5382 -40.1698 15.5105
566 1 -26.1996 -39.4488 15.70315
567 1 -27.1244 -40.4812 15.99245
568 1 -27.0454 -38.204 16.0222
569 1 -28.54 -37.9446 15.9435
570 1 -29.8538 -40.4644 24.5022
571 1 -25.8136 -39.187 19.9531
572 1 -37.1276 -44.159 18.2006
573 1 -38.9392 -46.6008 20.19985
574 1 -39.2848 -45.3518 19.56475
575 1 -25.9964 -40.7146 19.83585
576 1 -25.822 -40.873 24.3794
577 1 -38.511 -43.5792 24.7571
578 1 -28.112 -39.2718 20.16305
579 1 -28.6152 -43.2918 24.92845
580 1 -32.1584 -46.4486 19.1328
581 1 -35.8566 -44.3674 18.6157
582 1 -36.2532 -46.122 24.5167
583 1 -34.3386 -46.4892 19.5186
584 1 -33.2222 -45.7746 19.65275
585 1 -35.554 -45.7076 18.9268
586 1 -32.7786 -44.928 23.75305
587 1 -32.1276 -45.9874 23.32155
588 1 -33.0796 -44.4296 19.7327
589 1 -34.07 -44.976 24.4423
590 1 -34.7988 -46.0842 24.2724
591 1 -30.4036 -38.9532 19.5413
592 1 -30.7956 -41.4396 20.1368
593 1 -37.2378 -4.0 24.4963
594 1 -34.9064 -43.6956 23.96645
595 1 -31.966 -43.6818 24.19505
596 1 -36.3608 -43.2622 23.88605
597 1 -26.3098 -42.7846 23.57575
598 1 -30.6372 -45.9496 19.0479
599 1 -30.5654 -44.7656 19.6957
600 1 -30.0598 -45.169 24.0245
601 1 -28.4004 -45.0992 21.1522
602 1 -28.0132 -45.953 22.0247
603 1 -27.8336 -44.6242 23.08235
604 1 -28.753 -44.5504 24.31035
605 1 -30.613 -46.0972 22.95795
606 1 -29.1996 -44.345 20.12765
607 1 -26.047 -44.0822 21.5396
608 1 -26.9396 -43.6826 22.615
609 1 -30.7122 -43.8558 24.1741
610 1 -25.3592 -43.8504 18.95995
611 1 -27.4402 -42.9534 19.91165
612 1 -29.471 -41.5856 19.81035
613 1 -38.9632 -43.8606 19.0251
614 1 -31.2892 -40.0066 19.93855
615 1 -38.821 -37.953 22.34755
616 1 -37.9188 -43.1426 18.8728
617 1 -39.2052 -41.017 21.8502
618 1 -39.3088 -41.076 20.53705
619 1 -38.2164 -40.636 22.51295
620 1 -38.7914 -42.5554 23.84855
621 1 -37.9846 -40.79 19.82865
622 1 -38.2702 -39.2714 22.9699
623 1 -37.7546 -41.7354 23.34335
624 1 -37.3424 -42.0972 19.7499
625 1 -29.836 -42.7728 24.6629
626 1 -31.7498 -43.8076 19.57185
627 1 -32.1768 -38.2654 18.3398
628 1 -37.2976 -37.9762 20.0108
629 1 -33.656 -39.8746 19.37295
630 1 -34.2432 -40.3712 23.96475
631 1 -34.7538 -38.9318 24.2027
632 1 -32.291 -39.6012 19.0498
633 1 -34.5506 -38.8618 19.62335
634 1 -37.3808 -39.017 24.03825
635 1 -33.652 -38.4066 23.5319
636 1 -35.1404 -41.5966 24.0289
637 1 -33.1964 -42.249 19.96055
638 1 -34.0516 -43.4082 19.5648
639 1 -33.89 -41.034 19.86055
640 1 -35.2222 -41.161 19.9038
641 1 -35.419 -43.4468 19.4018
642 1 -37.1016 -39.6604 19.84825
643 1 -31.7336 -42.4336 19.744
644 1 -35.7638 -39.842 19.71175
645 1 -36.0788 -42.3414 19.87735
646 1 -31.8032 -41.557 23.7437
647 1 -32.5876 -42.5434 23.90175
648 1 -34.1766 -42.5886 24.07965
649 1 -36.064 -38.308 24.57345
650 1 -36.4886 -41.9474 23.81275
651 1 -32.9172 -40.4284 23.68095
652 1 -32.3566 -39.0058 23.5288
653 1 -26.2818 -39.5284 24.54015
654 1 -26.2756 -43.8314 20.2661
655 1 -28.8754 -42.9848 19.80485
656 1 -38.4684 -37.6504 21.0962
657 1 -30.7854 -38.1236 18.44045
658 1 -39.6848 -44.5444 24.88355
659 1 -37.002 -45.1948 24.92305
660 1 -27.672 -39.6168 24.8755
661 1 -29.8214 -25.7818 -24.789203
662 1 -31.3684 -29.3808 -24.28527
663 1 -39.5344 -33.9986 -24.01296
664 1 -39.7202 -35.7776 -22.116635
665 1 -38.4014 -36.23 -22.68112
666 1 -38.491 -34.5254 -24.7296585
667 1 -39.2038 -36.9124 -20.12401
668 1 -38.202 -35.7826 -24.114365
669 1 -37.862 -37.0706 -20.45403
670 2 -39.3018 -28.5436 -12.7463
671 1 -32.6508 -29.212 -24.177525
672 1 -37.5198 -36.9312 -21.935705
673 1 -36.764 -32.2268 -19.79275
674 1 -34.9642 -36.0062 -21.267855
675 1 -35.3516 -32.9794 -20.099015
676 1 -34.7584 -32.9452 -21.3713
677 1 -33.9528 -35.1018 -21.87791
678 1 -34.7938 -31.8016 -22.4432
679 1 -32.5744 -32.0852 -22.888755
680 1 -32.912 -33.4138 -22.658935
681 1 -33.504 -33.752 -21.374925
682 1 -32.8486 -35.9778 -22.57388
683 1 -35.1406 -36.4448 -20.00819
684 1 -35.1518 -33.4144 -18.7586
685 1 -34.0282 -34.484 -18.4213
686 1 -36.7434 -32.1946 -18.2993
687 1 -34.0254 -35.6658 -19.2401
688 1 -35.1426 -37.1104 -22.481965
689 1 -33.7918 -31.2536 -22.969635
690 1 -36.1948 -29.8918 -17.53715
691 1 -32.682 -36.0358 -19.19765
692 2 -37.0938 -29.8176 -12.62405
693 1 -31.5894 -34.1136 -22.963175
694 1 -31.5198 -35.4984 -22.6518
695 1 -31.2982 -31.4754 -23.04417
696 1 -28.0146 -36.562 -22.92391
697 1 -30.65 -36.4312 -23.007205
698 1 -30.1816 -33.5578 -22.72774
699 1 -30.1226 -32.1674 -22.41349
700 1 -29.2772 -35.7488 -22.957745
701 1 -29.201 -34.3788 -22.906115
702 1 -27.8428 -33.9122 -22.946535
703 1 -26.766 -34.6538 -23.503395
704 1 -26.7754 -36.0288 -23.30572
705 1 -25.4268 -34.0316 -23.36812
706 1 -28.5184 -31.7562 -19.4908
707 1 -26.4356 -33.809 -19.7611
708 1 -28.7436 -33.052 -19.23125
709 1 -25.6216 -32.6946 -20.534815
710 1 -25.786 -37.0488 -22.92968
711 1 -25.3292 -32.6494 -23.45134
712 1 -28.9582 -31.7914 -23.05116
713 1 -27.7256 -32.586 -23.0577
714 1 -26.5376 -31.8328 -23.74442
715 1 -26.3856 -31.5552 -20.739315
716 1 -25.3696 -34.8266 -19.7185
717 1 -27.7668 -34.1126 -19.3214
718 1 -27.0014 -36.3436 -18.83785
719 1 -25.7234 -35.9992 -19.14255
720 1 -28.1474 -35.4402 -19.0219
721 1 -29.8214 -36.941 -18.62135
722 1 -29.3404 -35.7036 -18.62655
723 1 -32.9792 -37.405 -22.95413
724 1 -32.8904 -30.3284 -17.7159
725 1 -38.673 -31.0504 -20.504225
726 1 -37.2894 -31.498 -20.77287
727 1 -39.4618 -30.8934 -21.664045
728 1 -39.0682 -30.7274 -19.09715
729 1 -39.3454 -31.0524 -22.980205
730 1 -37.9286 -30.8948 -23.434905
731 1 -38.5644 -25.353 -18.14675
732 1 -37.5376 -26.357 -18.3653
733 1 -37.0712 -31.0422 -22.26662
734 1 -37.395 -29.987 -24.369255
735 1 -36.0328 -30.006 -23.957505
736 1 -35.7834 -30.9548 -22.645775
737 1 -33.9078 -30.135 -23.97741
738 1 -32.8932 -26.1382 -20.66903
739 1 -35.3524 -25.7582 -19.51555
740 1 -33.2582 -26.8058 -19.4311
741 1 -36.6744 -25.2636 -19.04275
742 1 -34.46 -26.7 -18.9105
743 1 -32.9768 -28.0418 -18.9701
744 1 -31.8044 -26.597 -21.33317
745 1 -31.9276 -28.9368 -19.25895
746 1 -33.8972 -25.2674 -21.38234
747 1 -36.1902 -28.3302 -17.6463
748 1 -34.9934 -29.1376 -24.279455
749 1 -31.4782 -26.0652 -22.678495
750 1 -31.0142 -28.8692 -20.345835
751 2 -33.4768 -33.6858 -12.6446
752 1 -32.601 -25.5678 -23.42558
753 2 -34.8984 -33.6114 -12.7716
754 2 -35.519 -32.3112 -12.92865
755 1 -28.3554 -30.0852 -24.729067
756 1 -30.8102 -31.0202 -18.57485
757 1 -27.5918 -31.1192 -20.384145
758 1 -25.4984 -30.4446 -21.02761
759 1 -29.2604 -30.6688 -24.098315
760 1 -29.6554 -30.9328 -19.28455
761 1 -30.384 -26.3526 -23.59485
762 1 -29.9338 -29.8184 -20.10318
763 1 -30.6984 -27.315 -20.76136
764 1 -27.8152 -29.7818 -20.992065
765 1 -29.3712 -27.6754 -21.23444
766 1 -26.3936 -25.818 -22.34353
767 1 -26.9738 -26.9422 -21.729365
768 1 -28.3548 -26.8314 -21.92222
769 1 -26.2296 -28.0588 -21.480715
770 1 -26.6406 -29.2772 -20.95853
771 1 -29.0322 -29.1058 -20.80124
772 1 -28.8954 -26.6424 -23.208475
773 1 -27.0664 -30.5574 -24.7263815
774 1 -30.4552 -30.3092 -23.642875
775 1 -33.6618 -28.338 -17.9453
776 1 -26.9382 -25.1886 -23.37221
777 2 -34.8186 -31.1188 -12.6915
778 1 -31.6672 -29.9484 -18.27155
779 1 -34.9056 -27.8232 -17.88865
780 2 -37.8104 -35.952 -13.1797
781 2 -39.724 -32.42 -13.5557
782 2 -39.2084 -35.7864 -13.2782
783 2 -39.7706 -34.6234 -13.53225
784 2 -38.9066 -33.5282 -13.37735
785 2 -37.618 -33.4614 -13.00465
786 1 -31.8588 -35.0736 -18.5693
787 1 -35.3568 -32.3528 -17.85935
788 1 -32.6942 -34.213 -18.05665
789 2 -37.4124 -37.1258 -12.52965
790 1 -34.3274 -31.6618 -17.06105
791 1 -32.2708 -32.7102 -18.0444
792 1 -33.061 -31.7208 -17.4183
793 1 -34.9036 -30.383 -17.12905
794 2 -37.1658 -34.8452 -12.9364
795 1 -30.3058 -34.6684 -18.3289
796 1 -29.885 -33.2922 -18.39265
797 1 -30.995 -32.408 -18.2882
798 1 -37.3164 -30.869 -17.61925
799 1 -37.5014 -27.7332 -17.99855
800 1 -33.7782 -29.5462 -17.4336
801 2 -39.0242 -31.1702 -13.29595
802 1 -39.9086 -25.6874 -18.39445
803 1 -38.247 -30.0584 -18.25575
804 1 -38.6032 -28.671 -17.7089
805 1 -39.9512 -28.4404 -17.97235
806 2 -39.7004 -29.9426 -13.1712
807 1 -28.0062 -25.6456 -23.83815
808 2 -37.7014 -31.109 -12.9876
809 1 -33.7514 -25.3802 -22.81493
810 2 -36.957 -32.3408 -13.24035
811 2 -37.9696 -28.7202 -12.7889
812 2 -35.7288 -34.6854 -12.7608
813 1 -32.933 -27.998 -24.912509
814 2 -29.4146 -34.0448 -11.39205
815 1 -39.7184 -33.8618 -9.1512
816 2 -39.1458 -35.068 -8.9744
817 2 -37.6546 -35.0764 -8.94945
818 2 -39.126 -32.7246 -8.9506
819 1 -39.9066 -36.266 -8.8503
820 2 -37.7996 -32.5762 -8.58455
821 1 -39.8402 -31.561 -9.03615
822 2 -37.11 -36.1982 -8.24305
823 2 -37.2364 -33.725 -8.82505
824 2 -35.8032 -36.5006 -7.73255
825 2 -35.6756 -33.7192 -8.29225
826 2 -35.1376 -34.993 -8.0009
827 2 -33.1398 -36.2116 -7.51215
828 2 -35.2214 -32.429 -8.59605
829 2 -33.786 -32.6066 -8.61685
830 2 -31.8066 -36.0314 -7.8206
831 2 -33.9124 -34.89 -8.04455
832 2 -33.0858 -33.723 -8.0599
833 2 -31.712 -33.6804 -7.7898
834 2 -31.4278 -33.1032 -11.91195
835 2 -32.6726 -32.548 -12.18025
836 2 -33.1392 -37.4206 -12.00705
837 2 -33.1404 -35.0668 -12.28855
838 2 -35.6772 -27.6754 -11.70985
839 2 -33.7816 -36.2028 -12.2037
840 2 -31.7996 -31.5864 -8.24635
841 2 -29.8494 -37.4906 -7.97365
842 2 -36.901 -25.3656 -12.18915
843 2 -31.2094 -37.312 -7.99105
844 2 -35.1368 -35.935 -12.40355
845 2 -33.2358 -31.5428 -8.40865
846 2 -35.886 -31.1916 -8.81785
847 2 -37.1906 -31.3002 -8.7536
848 2 -37.6854 -26.3502 -12.2258
849 2 -33.6954 -37.4256 -7.5128
850 2 -34.8454 -29.0148 -11.7361
851 2 -31.0144 -34.8534 -7.65285
852 2 -31.0486 -36.1722 -0.7386
853 2 -27.4458 -30.8164 -3.509
854 2 -30.9572 -36.733 -12.0342
855 2 -25.3886 -31.625 -11.28005
856 2 -29.7992 -33.558 -0.43115
857 2 -30.8528 -32.608 -7.9292
858 2 -26.837 -36.5014 -11.3409
859 2 -26.6648 -34.3818 -11.37935
860 2 -29.6598 -35.0286 -7.83015
861 2 -27.5404 -36.4378 -7.66185
862 2 -28.6726 -33.9952 -8.1046
863 2 -29.464 -32.8756 -7.75415
864 2 -25.1958 -35.3276 -7.5548
865 2 -28.9626 -36.364 -7.74255
866 2 -27.1952 -34.1006 -7.8858
867 2 -26.592 -35.3748 -7.7035
868 2 -25.29 -34.1438 -11.03135
869 2 -28.7686 -32.7432 -11.14515
870 2 -27.3332 -33.1502 -11.34505
871 2 -26.656 -31.8952 -11.20255
872 2 -27.4928 -35.5374 -11.59335
873 2 -25.5336 -36.4956 -10.85085
874 2 -28.7602 -35.2624 -11.6798
875 2 -29.4402 -36.5124 -11.97145
876 2 -26.6202 -32.969 -7.8207
877 2 -29.6058 -31.6784 -11.5093
878 2 -27.4278 -31.8142 -7.73375
879 2 -28.8422 -31.6154 -8.1037
880 2 -25.2318 -33.0256 -7.3436
881 2 -29.0312 -34.8202 -0.27935
882 2 -37.1474 -37.0176 -0.63995
883 2 -30.7152 -29.5272 -4.3823
884 2 -26.859 -29.4586 -3.34565
885 2 -26.971 -26.405 -0.0114
886 2 -28.7482 -30.8014 -4.2064
887 2 -28.7252 -28.296 -4.24725
888 2 -39.3998 -25.3544 -8.703
889 2 -39.2204 -30.4176 -9.15555
890 1 -39.8612 -29.2688 -9.5815
891 1 -39.8664 -26.498 -9.35715
892 2 -39.198 -27.9272 -9.33335
893 2 -37.8242 -27.8708 -8.8291
894 2 -37.962 -30.2034 -8.7731
895 2 -38.0656 -25.4258 -8.5322
896 2 -35.9368 -37.1792 -0.433
897 2 -30.8902 -34.2478 -11.8653
898 2 -28.4858 -25.925 -4.20765
899 2 -33.5568 -31.4748 -12.1545
900 2 -34.9806 -25.2258 -8.05745
901 2 -31.0392 -33.5856 -0.73905
902 2 -37.1814 -29.0518 -8.644
903 2 -37.1398 -26.6186 -8.4073
904 2 -32.851 -25.2982 -12.0793
905 2 -31.5134 -30.3666 -11.9793
906 2 -32.6098 -27.7822 -11.9942
907 2 -35.03 -30.0848 -8.99655
908 2 -35.8136 -26.5338 -8.24375
909 2 -35.6786 -28.7648 -8.6341
910 2 -34.9274 -27.6568 -8.44145
911 2 -33.6504 -30.225 -8.74955
912 2 -31.6498 -29.1808 -8.1093
913 2 -32.957 -28.9742 -8.46335
914 2 -33.497 -27.6594 -8.2514
915 2 -32.8522 -26.5214 -8.0489
916 2 -31.5838 -26.5992 -8.0288
917 2 -31.6488 -34.8888 -0.8345
918 2 -32.833 -30.403 -11.67215
919 2 -27.202 -28.2746 -4.056
920 2 -33.4138 -29.074 -11.59595
921 2 -31.252 -27.7214 -11.8933
922 2 -27.055 -26.021 -4.09495
923 2 -33.51 -25.2684 -8.26085