LAMMPS data file. CGCMM style. atom_style full generated by VMD/TopoTools v1.7 on Thu Mar 16 13:55:55 +0800 2023
 4374 atoms
 2916 bonds
 1458 angles
 0 dihedrals
 0 impropers
 6 atom types
 3 bond types
 3 angle types
 0 dihedral types
 0 improper types
 -12.590733 23.499267  xlo xhi
 -12.478819 23.611181  ylo yhi
 -12.399492 23.690508  zlo zhi

 Masses

 1 15.999000 # 1
 2 1.008000 # 2
 3 12.011000 # 3
 4 15.999000 # 4
 5 12.011000 # 5
 6 15.999000 # 6

 Atoms # full

1 1 1 0.000000 -9.821051 -9.821051 -9.821051 # 1 
2 1 2 0.000000 -10.665317 -9.424357 -10.035716 # 2 
3 1 2 0.000000 -10.045447 -10.661015 -9.420628 # 2 
4 1 1 0.000000 -12.030000 -8.335587 -10.608174 # 1 
5 1 2 0.000000 -12.028532 -7.540823 -10.074713 # 2 
6 1 2 0.000000 -12.027662 -8.018431 -11.511301 # 2 
7 1 1 0.000000 -12.030000 -6.015000 -9.022500 # 1 
8 1 2 0.000000 -12.781310 -6.018434 -8.429413 # 2 
9 1 2 0.000000 -11.267489 -6.012900 -8.443876 # 2 
10 1 1 0.000000 -2.208948 -2.208948 -9.821051 # 1 
11 1 2 0.000000 -1.989884 -1.366080 -9.423790 # 2 
12 1 2 0.000000 -2.613968 -1.981730 -10.658048 # 2 
13 1 1 0.000000 -12.030000 -3.694413 -10.608174 # 1 
14 1 2 0.000000 -12.098805 -4.458388 -10.035601 # 2 
15 1 2 0.000000 -12.792676 -3.159718 -10.387589 # 2 
16 1 1 0.000000 -2.208948 -9.821051 -2.208948 # 1 
17 1 2 0.000000 -2.760315 -9.322469 -2.811976 # 2 
18 1 2 0.000000 -2.034134 -10.642942 -2.667387 # 2 
19 1 1 0.000000 -12.030000 -8.335587 -1.421825 # 1 
20 1 2 0.000000 -12.798480 -8.865008 -1.634858 # 2 
21 1 2 0.000000 -12.090148 -7.579449 -2.005666 # 2 
22 1 1 0.000000 -12.030000 -6.015000 -3.007500 # 1 
23 1 2 0.000000 -12.068148 -5.221222 -2.473933 # 2 
24 1 2 0.000000 -12.829434 -5.989371 -3.533313 # 2 
25 1 1 0.000000 -9.821051 -2.208948 -2.208948 # 1 
26 1 2 0.000000 -10.664328 -2.603013 -1.985723 # 2 
27 1 2 0.000000 -9.422132 -2.001058 -1.364035 # 2 
28 1 1 0.000000 -12.030000 -3.694413 -1.421825 # 1 
29 1 2 0.000000 -12.076694 -3.974295 -0.507649 # 2 
30 1 2 0.000000 -12.788200 -3.121500 -1.536434 # 2 
31 1 1 0.000000 -10.608174 -12.030000 -8.335587 # 1 
32 1 2 0.000000 -11.523460 -12.078109 -8.059600 # 2 
33 1 2 0.000000 -10.490007 -12.787912 -8.908157 # 2 
34 1 1 0.000000 -9.022500 -12.030000 -6.015000 # 1 
35 1 2 0.000000 -9.613894 -12.028864 -6.767651 # 2 
36 1 2 0.000000 -9.602800 -12.021596 -5.253808 # 2 
37 1 1 0.000000 -10.608174 -12.030000 -3.694413 # 1 
38 1 2 0.000000 -10.453829 -12.792829 -3.137187 # 2 
39 1 2 0.000000 -10.440363 -11.279037 -3.125093 # 2 
40 1 1 0.000000 -1.421825 -12.030000 -8.335587 # 1 
41 1 2 0.000000 -2.002827 -11.963107 -7.577830 # 2 
42 1 2 0.000000 -1.635995 -11.265600 -8.870430 # 2 
43 1 1 0.000000 -3.007500 -12.030000 -6.015000 # 1 
44 1 2 0.000000 -3.588605 -12.790617 -6.011817 # 2 
45 1 2 0.000000 -3.598128 -11.276785 -6.022559 # 2 
46 1 1 0.000000 -1.421825 -12.030000 -3.694413 # 1 
47 1 2 0.000000 -0.519897 -12.027956 -4.014963 # 2 
48 1 2 0.000000 -1.958264 -12.032130 -4.487168 # 2 
49 1 1 0.000000 -8.335587 -10.608174 -12.030000 # 1 
50 1 2 0.000000 -8.897637 -10.437269 -11.274273 # 2 
51 1 2 0.000000 -8.897786 -10.448793 -12.788130 # 2 
52 1 1 0.000000 -6.015000 -9.022500 -12.030000 # 1 
53 1 2 0.000000 -6.771582 -9.608857 -12.030106 # 2 
54 1 2 0.000000 -5.257683 -9.607904 -12.027946 # 2 
55 1 1 0.000000 -3.694413 -10.608174 -12.030000 # 1 
56 1 2 0.000000 -3.106040 -10.495747 -12.776598 # 2 
57 1 2 0.000000 -3.962584 -11.526086 -12.071879 # 2 
58 1 1 0.000000 -8.335587 -1.421825 -12.030000 # 1 
59 1 2 0.000000 -8.059555 -0.507151 -11.971623 # 2 
60 1 2 0.000000 -8.907520 -1.548684 -11.273011 # 2 
61 1 1 0.000000 -6.015000 -3.007500 -12.030000 # 1 
62 1 2 0.000000 -6.815265 -2.482833 -12.006925 # 2 
63 1 2 0.000000 -6.052556 -3.537628 -11.233893 # 2 
64 1 1 0.000000 -3.694413 -1.421825 -12.030000 # 1 
65 1 2 0.000000 -4.458349 -1.994067 -12.101928 # 2 
66 1 2 0.000000 -3.163049 -1.633279 -12.797575 # 2 
67 1 1 0.000000 -3.806051 -3.806051 -8.223948 # 1 
68 1 2 0.000000 -3.199973 -3.310878 -8.775042 # 2 
69 1 2 0.000000 -3.354405 -4.632504 -8.052995 # 2 
70 1 1 0.000000 -2.320587 -6.015000 -7.436825 # 1 
71 1 2 0.000000 -2.038324 -6.063184 -6.523459 # 2 
72 1 2 0.000000 -2.892490 -6.773932 -7.551629 # 2 
73 1 1 0.000000 -8.223948 -8.223948 -8.223948 # 1 
74 1 2 0.000000 -8.774971 -8.825753 -8.724385 # 2 
75 1 2 0.000000 -8.063155 -8.677523 -7.396514 # 2 
76 1 1 0.000000 -9.709413 -6.015000 -7.436825 # 1 
77 1 2 0.000000 -9.143759 -6.770408 -7.596904 # 2 
78 1 2 0.000000 -9.151161 -5.256568 -7.608198 # 2 
79 1 1 0.000000 -3.806051 -8.223948 -3.806051 # 1 
80 1 2 0.000000 -4.652854 -8.020141 -3.409039 # 2 
81 1 2 0.000000 -4.025419 -8.616436 -4.651074 # 2 
82 1 1 0.000000 -2.320587 -6.015000 -4.593174 # 1 
83 1 2 0.000000 -2.883772 -6.771500 -4.429584 # 2 
84 1 2 0.000000 -2.881981 -5.257602 -4.427596 # 2 
85 1 1 0.000000 -8.223948 -3.806051 -3.806051 # 1 
86 1 2 0.000000 -8.833064 -3.314779 -3.254816 # 2 
87 1 2 0.000000 -8.668579 -4.637006 -3.973534 # 2 
88 1 1 0.000000 -9.709413 -6.015000 -4.593174 # 1 
89 1 2 0.000000 -10.504475 -6.025909 -4.060268 # 2 
90 1 2 0.000000 -10.025853 -6.023389 -5.496517 # 2 
91 1 1 0.000000 -6.015000 -4.593174 -9.709413 # 1 
92 1 2 0.000000 -5.262996 -4.471724 -9.129782 # 2 
93 1 2 0.000000 -5.966941 -5.511333 -9.975696 # 2 
94 1 1 0.000000 -6.015000 -4.593174 -2.320587 # 1 
95 1 2 0.000000 -6.063818 -4.005089 -1.566926 # 2 
96 1 2 0.000000 -6.774684 -4.361928 -2.855038 # 2 
97 1 1 0.000000 -6.015000 -7.436825 -9.709413 # 1 
98 1 2 0.000000 -6.085061 -8.010337 -10.472569 # 2 
99 1 2 0.000000 -6.781563 -7.650481 -9.177468 # 2 
100 1 1 0.000000 -6.015000 -7.436825 -2.320587 # 1 
101 1 2 0.000000 -6.003295 -7.968179 -1.524498 # 2 
102 1 2 0.000000 -6.047576 -6.533481 -2.005722 # 2 
103 1 1 0.000000 -4.593174 -2.320587 -6.015000 # 1 
104 1 2 0.000000 -4.475860 -2.894345 -6.772147 # 2 
105 1 2 0.000000 -5.508999 -2.046115 -6.061495 # 2 
106 1 1 0.000000 -4.593174 -9.709413 -6.015000 # 1 
107 1 2 0.000000 -5.506230 -9.994772 -6.048617 # 2 
108 1 2 0.000000 -4.492085 -9.138166 -6.776374 # 2 
109 1 1 0.000000 -7.436825 -2.320587 -6.015000 # 1 
110 1 2 0.000000 -8.021482 -1.565385 -5.951138 # 2 
111 1 2 0.000000 -7.654514 -2.857715 -5.253201 # 2 
112 1 1 0.000000 -7.436825 -9.709413 -6.015000 # 1 
113 1 2 0.000000 -8.019766 -10.464763 -5.938463 # 2 
114 1 2 0.000000 -7.637809 -9.172515 -5.248464 # 2 
115 1 1 0.000000 -2.208948 -2.208948 -2.208948 # 1 
116 1 2 0.000000 -2.050642 -1.382475 -2.665142 # 2 
117 1 2 0.000000 -2.765673 -2.709485 -2.805399 # 2 
118 1 1 0.000000 -9.821051 -9.821051 -2.208948 # 1 
119 1 2 0.000000 -10.642817 -9.362722 -2.033257 # 2 
120 1 2 0.000000 -9.324612 -9.219462 -2.763810 # 2 
121 1 1 0.000000 -9.821051 -2.208948 -9.821051 # 1 
122 1 2 0.000000 -10.643404 -2.666933 -9.994884 # 2 
123 1 2 0.000000 -9.320756 -2.813671 -9.273103 # 2 
124 1 1 0.000000 -2.208948 -9.821051 -9.821051 # 1 
125 1 2 0.000000 -1.364686 -9.425254 -10.037378 # 2 
126 1 2 0.000000 -2.597906 -10.035236 -10.669030 # 2 
127 1 1 0.000000 -8.223948 -8.223948 -3.806051 # 1 
128 1 2 0.000000 -8.625648 -7.377822 -4.003381 # 2 
129 1 2 0.000000 -7.385647 -8.002839 -3.400351 # 2 
130 1 1 0.000000 -3.806051 -3.806051 -3.806051 # 1 
131 1 2 0.000000 -4.652194 -4.028677 -3.417832 # 2 
132 1 2 0.000000 -4.025455 -3.415097 -4.651775 # 2 
133 1 1 0.000000 -8.223948 -3.806051 -8.223948 # 1 
134 1 2 0.000000 -7.376247 -4.016877 -8.615338 # 2 
135 1 2 0.000000 -8.006750 -3.408678 -7.380651 # 2 
136 1 1 0.000000 -3.806051 -8.223948 -8.223948 # 1 
137 1 2 0.000000 -4.628896 -8.051144 -8.681438 # 2 
138 1 2 0.000000 -3.308065 -8.776627 -8.826267 # 2 
139 1 3 0.000000 -11.381086 -9.088803 -5.739613 # 3 
140 1 4 0.000000 -11.744419 -10.081449 -5.473635 # 4 
141 1 4 0.000000 -11.744419 -8.822825 -6.732258 # 4 
142 1 5 0.000000 -5.912584 -5.924705 -5.969361 # 5 
143 1 6 0.000000 -6.275918 -6.917350 -5.703382 # 6 
144 1 6 0.000000 -6.275917 -5.658727 -6.962006 # 6 
145 1 3 0.000000 -11.377924 -2.844216 -6.212798 # 3 
146 1 4 0.000000 -11.741258 -3.836862 -5.946820 # 4 
147 1 4 0.000000 -11.741257 -2.578238 -7.205443 # 4 
148 1 3 0.000000 -2.992830 -5.615365 -0.652243 # 3 
149 1 4 0.000000 -3.356164 -6.608010 -0.386264 # 4 
150 1 4 0.000000 -3.356163 -5.349386 -1.644888 # 4 
151 1 3 0.000000 -6.102736 -0.469360 -9.025137 # 3 
152 1 4 0.000000 -6.466069 -1.462006 -8.759158 # 4 
153 1 4 0.000000 -6.466069 -0.203381 -10.017782 # 4 
154 1 3 0.000000 -5.530085 -0.438881 -2.799189 # 3 
155 1 4 0.000000 -5.893418 -1.431526 -2.533211 # 4 
156 1 4 0.000000 -5.893417 -0.172903 -3.791834 # 4 
157 1 5 0.000000 -0.322031 -0.400788 -0.237387 # 5 
158 1 6 0.000000 -0.685364 -1.393433 0.028592 # 6 
159 1 6 0.000000 -0.685364 -0.134810 -1.230032 # 6 
160 1 3 0.000000 -9.107496 -6.569416 -11.359430 # 3 
161 1 4 0.000000 -9.470830 -7.562061 -11.093451 # 4 
162 1 4 0.000000 -9.470830 -6.303437 -12.352076 # 4 
163 2 1 0.000000 -9.821051 -9.821051 2.208949 # 1 
164 2 2 0.000000 -10.665317 -9.424357 1.994284 # 2 
165 2 2 0.000000 -10.045447 -10.661015 2.609372 # 2 
166 2 1 0.000000 -12.030000 -8.335587 1.421826 # 1 
167 2 2 0.000000 -12.028532 -7.540823 1.955287 # 2 
168 2 2 0.000000 -12.027662 -8.018431 0.518699 # 2 
169 2 1 0.000000 -12.030000 -6.015000 3.007500 # 1 
170 2 2 0.000000 -12.781310 -6.018434 3.600587 # 2 
171 2 2 0.000000 -11.267489 -6.012900 3.586123 # 2 
172 2 1 0.000000 -2.208948 -2.208948 2.208949 # 1 
173 2 2 0.000000 -1.989884 -1.366080 2.606210 # 2 
174 2 2 0.000000 -2.613968 -1.981730 1.371952 # 2 
175 2 1 0.000000 -12.030000 -3.694413 1.421826 # 1 
176 2 2 0.000000 -12.098805 -4.458388 1.994399 # 2 
177 2 2 0.000000 -12.792676 -3.159718 1.642411 # 2 
178 2 1 0.000000 -2.208948 -9.821051 9.821052 # 1 
179 2 2 0.000000 -2.760315 -9.322469 9.218023 # 2 
180 2 2 0.000000 -2.034134 -10.642942 9.362613 # 2 
181 2 1 0.000000 -12.030000 -8.335587 10.608174 # 1 
182 2 2 0.000000 -12.798480 -8.865008 10.395142 # 2 
183 2 2 0.000000 -12.090148 -7.579449 10.024334 # 2 
184 2 1 0.000000 -12.030000 -6.015000 9.022500 # 1 
185 2 2 0.000000 -12.068148 -5.221222 9.556067 # 2 
186 2 2 0.000000 -12.829434 -5.989371 8.496687 # 2 
187 2 1 0.000000 -9.821051 -2.208948 9.821052 # 1 
188 2 2 0.000000 -10.664328 -2.603013 10.044277 # 2 
189 2 2 0.000000 -9.422132 -2.001058 10.665964 # 2 
190 2 1 0.000000 -12.030000 -3.694413 10.608174 # 1 
191 2 2 0.000000 -12.076694 -3.974295 11.522350 # 2 
192 2 2 0.000000 -12.788200 -3.121500 10.493566 # 2 
193 2 1 0.000000 -10.608174 -12.030000 3.694413 # 1 
194 2 2 0.000000 -11.523460 -12.078109 3.970399 # 2 
195 2 2 0.000000 -10.490007 -12.787912 3.121842 # 2 
196 2 1 0.000000 -9.022500 -12.030000 6.015000 # 1 
197 2 2 0.000000 -9.613894 -12.028864 5.262349 # 2 
198 2 2 0.000000 -9.602800 -12.021596 6.776191 # 2 
199 2 1 0.000000 -10.608174 -12.030000 8.335587 # 1 
200 2 2 0.000000 -10.453829 -12.792829 8.892813 # 2 
201 2 2 0.000000 -10.440363 -11.279037 8.904907 # 2 
202 2 1 0.000000 -1.421825 -12.030000 3.694413 # 1 
203 2 2 0.000000 -2.002827 -11.963107 4.452169 # 2 
204 2 2 0.000000 -1.635995 -11.265600 3.159570 # 2 
205 2 1 0.000000 -3.007500 -12.030000 6.015000 # 1 
206 2 2 0.000000 -3.588605 -12.790617 6.018182 # 2 
207 2 2 0.000000 -3.598128 -11.276785 6.007441 # 2 
208 2 1 0.000000 -1.421825 -12.030000 8.335587 # 1 
209 2 2 0.000000 -0.519897 -12.027956 8.015037 # 2 
210 2 2 0.000000 -1.958264 -12.032130 7.542832 # 2 
211 2 1 0.000000 -8.335587 -10.608174 0.000000 # 1 
212 2 2 0.000000 -8.897637 -10.437269 0.755726 # 2 
213 2 2 0.000000 -8.897786 -10.448793 -0.758130 # 2 
214 2 1 0.000000 -6.015000 -9.022500 0.000000 # 1 
215 2 2 0.000000 -6.771582 -9.608857 -0.000106 # 2 
216 2 2 0.000000 -5.257683 -9.607904 0.002054 # 2 
217 2 1 0.000000 -3.694413 -10.608174 0.000000 # 1 
218 2 2 0.000000 -3.106040 -10.495747 -0.746598 # 2 
219 2 2 0.000000 -3.962584 -11.526086 -0.041880 # 2 
220 2 1 0.000000 -8.335587 -1.421825 0.000000 # 1 
221 2 2 0.000000 -8.059555 -0.507151 0.058376 # 2 
222 2 2 0.000000 -8.907520 -1.548684 0.756988 # 2 
223 2 1 0.000000 -6.015000 -3.007500 0.000000 # 1 
224 2 2 0.000000 -6.815265 -2.482833 0.023075 # 2 
225 2 2 0.000000 -6.052556 -3.537628 0.796106 # 2 
226 2 1 0.000000 -3.694413 -1.421825 0.000000 # 1 
227 2 2 0.000000 -4.458349 -1.994067 -0.071928 # 2 
228 2 2 0.000000 -3.163049 -1.633279 -0.767575 # 2 
229 2 1 0.000000 -3.806051 -3.806051 3.806051 # 1 
230 2 2 0.000000 -3.199973 -3.310878 3.254958 # 2 
231 2 2 0.000000 -3.354405 -4.632504 3.977005 # 2 
232 2 1 0.000000 -2.320587 -6.015000 4.593174 # 1 
233 2 2 0.000000 -2.038324 -6.063184 5.506541 # 2 
234 2 2 0.000000 -2.892490 -6.773932 4.478371 # 2 
235 2 1 0.000000 -8.223948 -8.223948 3.806051 # 1 
236 2 2 0.000000 -8.774971 -8.825753 3.305615 # 2 
237 2 2 0.000000 -8.063155 -8.677523 4.633486 # 2 
238 2 1 0.000000 -9.709413 -6.015000 4.593174 # 1 
239 2 2 0.000000 -9.143759 -6.770408 4.433095 # 2 
240 2 2 0.000000 -9.151161 -5.256568 4.421802 # 2 
241 2 1 0.000000 -3.806051 -8.223948 8.223948 # 1 
242 2 2 0.000000 -4.652854 -8.020141 8.620961 # 2 
243 2 2 0.000000 -4.025419 -8.616436 7.378925 # 2 
244 2 1 0.000000 -2.320587 -6.015000 7.436825 # 1 
245 2 2 0.000000 -2.883772 -6.771500 7.600416 # 2 
246 2 2 0.000000 -2.881981 -5.257602 7.602404 # 2 
247 2 1 0.000000 -8.223948 -3.806051 8.223948 # 1 
248 2 2 0.000000 -8.833064 -3.314779 8.775184 # 2 
249 2 2 0.000000 -8.668579 -4.637006 8.056466 # 2 
250 2 1 0.000000 -9.709413 -6.015000 7.436825 # 1 
251 2 2 0.000000 -10.504475 -6.025909 7.969732 # 2 
252 2 2 0.000000 -10.025853 -6.023389 6.533483 # 2 
253 2 1 0.000000 -6.015000 -4.593174 2.320587 # 1 
254 2 2 0.000000 -5.262996 -4.471724 2.900218 # 2 
255 2 2 0.000000 -5.966941 -5.511333 2.054304 # 2 
256 2 1 0.000000 -6.015000 -4.593174 9.709413 # 1 
257 2 2 0.000000 -6.063818 -4.005089 10.463074 # 2 
258 2 2 0.000000 -6.774684 -4.361928 9.174962 # 2 
259 2 1 0.000000 -6.015000 -7.436825 2.320587 # 1 
260 2 2 0.000000 -6.085061 -8.010337 1.557431 # 2 
261 2 2 0.000000 -6.781563 -7.650481 2.852531 # 2 
262 2 1 0.000000 -6.015000 -7.436825 9.709413 # 1 
263 2 2 0.000000 -6.003295 -7.968179 10.505502 # 2 
264 2 2 0.000000 -6.047576 -6.533481 10.024278 # 2 
265 2 1 0.000000 -4.593174 -2.320587 6.015000 # 1 
266 2 2 0.000000 -4.475860 -2.894345 5.257853 # 2 
267 2 2 0.000000 -5.508999 -2.046115 5.968504 # 2 
268 2 1 0.000000 -4.593174 -9.709413 6.015000 # 1 
269 2 2 0.000000 -5.506230 -9.994772 5.981382 # 2 
270 2 2 0.000000 -4.492085 -9.138166 5.253626 # 2 
271 2 1 0.000000 -7.436825 -2.320587 6.015000 # 1 
272 2 2 0.000000 -8.021482 -1.565385 6.078862 # 2 
273 2 2 0.000000 -7.654514 -2.857715 6.776799 # 2 
274 2 1 0.000000 -7.436825 -9.709413 6.015000 # 1 
275 2 2 0.000000 -8.019766 -10.464763 6.091537 # 2 
276 2 2 0.000000 -7.637809 -9.172515 6.781536 # 2 
277 2 1 0.000000 -2.208948 -2.208948 9.821052 # 1 
278 2 2 0.000000 -2.050642 -1.382475 9.364858 # 2 
279 2 2 0.000000 -2.765673 -2.709485 9.224601 # 2 
280 2 1 0.000000 -9.821051 -9.821051 9.821052 # 1 
281 2 2 0.000000 -10.642817 -9.362722 9.996742 # 2 
282 2 2 0.000000 -9.324612 -9.219462 9.266190 # 2 
283 2 1 0.000000 -9.821051 -2.208948 2.208949 # 1 
284 2 2 0.000000 -10.643404 -2.666933 2.035116 # 2 
285 2 2 0.000000 -9.320756 -2.813671 2.756897 # 2 
286 2 1 0.000000 -2.208948 -9.821051 2.208949 # 1 
287 2 2 0.000000 -1.364686 -9.425254 1.992621 # 2 
288 2 2 0.000000 -2.597906 -10.035236 1.360970 # 2 
289 2 1 0.000000 -8.223948 -8.223948 8.223948 # 1 
290 2 2 0.000000 -8.625648 -7.377822 8.026619 # 2 
291 2 2 0.000000 -7.385647 -8.002839 8.629649 # 2 
292 2 1 0.000000 -3.806051 -3.806051 8.223948 # 1 
293 2 2 0.000000 -4.652194 -4.028677 8.612167 # 2 
294 2 2 0.000000 -4.025455 -3.415097 7.378224 # 2 
295 2 1 0.000000 -8.223948 -3.806051 3.806051 # 1 
296 2 2 0.000000 -7.376247 -4.016877 3.414661 # 2 
297 2 2 0.000000 -8.006750 -3.408678 4.649349 # 2 
298 2 1 0.000000 -3.806051 -8.223948 3.806051 # 1 
299 2 2 0.000000 -4.628896 -8.051144 3.348561 # 2 
300 2 2 0.000000 -3.308065 -8.776627 3.203732 # 2 
301 2 3 0.000000 -11.381086 -9.088803 6.290387 # 3 
302 2 4 0.000000 -11.744419 -10.081449 6.556365 # 4 
303 2 4 0.000000 -11.744419 -8.822825 5.297741 # 4 
304 2 5 0.000000 -5.912584 -5.924705 6.060639 # 5 
305 2 6 0.000000 -6.275918 -6.917350 6.326618 # 6 
306 2 6 0.000000 -6.275917 -5.658727 5.067994 # 6 
307 2 3 0.000000 -11.377924 -2.844216 5.817202 # 3 
308 2 4 0.000000 -11.741258 -3.836862 6.083180 # 4 
309 2 4 0.000000 -11.741257 -2.578238 4.824556 # 4 
310 2 3 0.000000 -2.992830 -5.615365 11.377757 # 3 
311 2 4 0.000000 -3.356164 -6.608010 11.643736 # 4 
312 2 4 0.000000 -3.356163 -5.349386 10.385112 # 4 
313 2 3 0.000000 -6.102736 -0.469360 3.004863 # 3 
314 2 4 0.000000 -6.466069 -1.462006 3.270842 # 4 
315 2 4 0.000000 -6.466069 -0.203381 2.012218 # 4 
316 2 3 0.000000 -5.530085 -0.438881 9.230811 # 3 
317 2 4 0.000000 -5.893418 -1.431526 9.496789 # 4 
318 2 4 0.000000 -5.893417 -0.172903 8.238166 # 4 
319 2 5 0.000000 -0.322031 -0.400788 11.792613 # 5 
320 2 6 0.000000 -0.685364 -1.393433 12.058592 # 6 
321 2 6 0.000000 -0.685364 -0.134810 10.799968 # 6 
322 2 3 0.000000 -9.107496 -6.569416 0.670570 # 3 
323 2 4 0.000000 -9.470830 -7.562061 0.936548 # 4 
324 2 4 0.000000 -9.470830 -6.303437 -0.322076 # 4 
325 3 1 0.000000 -9.821051 -9.821051 14.238948 # 1 
326 3 2 0.000000 -10.665317 -9.424357 14.024283 # 2 
327 3 2 0.000000 -10.045447 -10.661015 14.639372 # 2 
328 3 1 0.000000 -12.030000 -8.335587 13.451825 # 1 
329 3 2 0.000000 -12.028532 -7.540823 13.985287 # 2 
330 3 2 0.000000 -12.027662 -8.018431 12.548698 # 2 
331 3 1 0.000000 -12.030000 -6.015000 15.037499 # 1 
332 3 2 0.000000 -12.781310 -6.018434 15.630587 # 2 
333 3 2 0.000000 -11.267489 -6.012900 15.616123 # 2 
334 3 1 0.000000 -2.208948 -2.208948 14.238948 # 1 
335 3 2 0.000000 -1.989884 -1.366080 14.636209 # 2 
336 3 2 0.000000 -2.613968 -1.981730 13.401952 # 2 
337 3 1 0.000000 -12.030000 -3.694413 13.451825 # 1 
338 3 2 0.000000 -12.098805 -4.458388 14.024399 # 2 
339 3 2 0.000000 -12.792676 -3.159718 13.672411 # 2 
340 3 1 0.000000 -2.208948 -9.821051 21.851051 # 1 
341 3 2 0.000000 -2.760315 -9.322469 21.248022 # 2 
342 3 2 0.000000 -2.034134 -10.642942 21.392612 # 2 
343 3 1 0.000000 -12.030000 -8.335587 22.638174 # 1 
344 3 2 0.000000 -12.798480 -8.865008 22.425140 # 2 
345 3 2 0.000000 -12.090148 -7.579449 22.054335 # 2 
346 3 1 0.000000 -12.030000 -6.015000 21.052500 # 1 
347 3 2 0.000000 -12.068148 -5.221222 21.586065 # 2 
348 3 2 0.000000 -12.829434 -5.989371 20.526688 # 2 
349 3 1 0.000000 -9.821051 -2.208948 21.851051 # 1 
350 3 2 0.000000 -10.664328 -2.603013 22.074276 # 2 
351 3 2 0.000000 -9.422132 -2.001058 22.695965 # 2 
352 3 1 0.000000 -12.030000 -3.694413 22.638174 # 1 
353 3 2 0.000000 -12.076694 -3.974295 23.552349 # 2 
354 3 2 0.000000 -12.788200 -3.121500 22.523565 # 2 
355 3 1 0.000000 -10.608174 -12.030000 15.724413 # 1 
356 3 2 0.000000 -11.523460 -12.078109 16.000399 # 2 
357 3 2 0.000000 -10.490007 -12.787912 15.151841 # 2 
358 3 1 0.000000 -9.022500 -12.030000 18.045000 # 1 
359 3 2 0.000000 -9.613894 -12.028864 17.292349 # 2 
360 3 2 0.000000 -9.602800 -12.021596 18.806190 # 2 
361 3 1 0.000000 -10.608174 -12.030000 20.365587 # 1 
362 3 2 0.000000 -10.453829 -12.792829 20.922813 # 2 
363 3 2 0.000000 -10.440363 -11.279037 20.934906 # 2 
364 3 1 0.000000 -1.421825 -12.030000 15.724413 # 1 
365 3 2 0.000000 -2.002827 -11.963107 16.482168 # 2 
366 3 2 0.000000 -1.635995 -11.265600 15.189569 # 2 
367 3 1 0.000000 -3.007500 -12.030000 18.045000 # 1 
368 3 2 0.000000 -3.588605 -12.790617 18.048182 # 2 
369 3 2 0.000000 -3.598128 -11.276785 18.037441 # 2 
370 3 1 0.000000 -1.421825 -12.030000 20.365587 # 1 
371 3 2 0.000000 -0.519897 -12.027956 20.045036 # 2 
372 3 2 0.000000 -1.958264 -12.032130 19.572832 # 2 
373 3 1 0.000000 -8.335587 -10.608174 12.030000 # 1 
374 3 2 0.000000 -8.897637 -10.437269 12.785727 # 2 
375 3 2 0.000000 -8.897786 -10.448793 11.271870 # 2 
376 3 1 0.000000 -6.015000 -9.022500 12.030000 # 1 
377 3 2 0.000000 -6.771582 -9.608857 12.029894 # 2 
378 3 2 0.000000 -5.257683 -9.607904 12.032054 # 2 
379 3 1 0.000000 -3.694413 -10.608174 12.030000 # 1 
380 3 2 0.000000 -3.106040 -10.495747 11.283401 # 2 
381 3 2 0.000000 -3.962584 -11.526086 11.988120 # 2 
382 3 1 0.000000 -8.335587 -1.421825 12.030000 # 1 
383 3 2 0.000000 -8.059555 -0.507151 12.088376 # 2 
384 3 2 0.000000 -8.907520 -1.548684 12.786988 # 2 
385 3 1 0.000000 -6.015000 -3.007500 12.030000 # 1 
386 3 2 0.000000 -6.815265 -2.482833 12.053075 # 2 
387 3 2 0.000000 -6.052556 -3.537628 12.826106 # 2 
388 3 1 0.000000 -3.694413 -1.421825 12.030000 # 1 
389 3 2 0.000000 -4.458349 -1.994067 11.958072 # 2 
390 3 2 0.000000 -3.163049 -1.633279 11.262424 # 2 
391 3 1 0.000000 -3.806051 -3.806051 15.836051 # 1 
392 3 2 0.000000 -3.199973 -3.310878 15.284957 # 2 
393 3 2 0.000000 -3.354405 -4.632504 16.007004 # 2 
394 3 1 0.000000 -2.320587 -6.015000 16.623175 # 1 
395 3 2 0.000000 -2.038324 -6.063184 17.536541 # 2 
396 3 2 0.000000 -2.892490 -6.773932 16.508371 # 2 
397 3 1 0.000000 -8.223948 -8.223948 15.836051 # 1 
398 3 2 0.000000 -8.774971 -8.825753 15.335614 # 2 
399 3 2 0.000000 -8.063155 -8.677523 16.663485 # 2 
400 3 1 0.000000 -9.709413 -6.015000 16.623175 # 1 
401 3 2 0.000000 -9.143759 -6.770408 16.463095 # 2 
402 3 2 0.000000 -9.151161 -5.256568 16.451801 # 2 
403 3 1 0.000000 -3.806051 -8.223948 20.253948 # 1 
404 3 2 0.000000 -4.652854 -8.020141 20.650961 # 2 
405 3 2 0.000000 -4.025419 -8.616436 19.408924 # 2 
406 3 1 0.000000 -2.320587 -6.015000 19.466825 # 1 
407 3 2 0.000000 -2.883772 -6.771500 19.630415 # 2 
408 3 2 0.000000 -2.881981 -5.257602 19.632404 # 2 
409 3 1 0.000000 -8.223948 -3.806051 20.253948 # 1 
410 3 2 0.000000 -8.833064 -3.314779 20.805183 # 2 
411 3 2 0.000000 -8.668579 -4.637006 20.086466 # 2 
412 3 1 0.000000 -9.709413 -6.015000 19.466825 # 1 
413 3 2 0.000000 -10.504475 -6.025909 19.999731 # 2 
414 3 2 0.000000 -10.025853 -6.023389 18.563482 # 2 
415 3 1 0.000000 -6.015000 -4.593174 14.350587 # 1 
416 3 2 0.000000 -5.262996 -4.471724 14.930218 # 2 
417 3 2 0.000000 -5.966941 -5.511333 14.084304 # 2 
418 3 1 0.000000 -6.015000 -4.593174 21.739412 # 1 
419 3 2 0.000000 -6.063818 -4.005089 22.493074 # 2 
420 3 2 0.000000 -6.774684 -4.361928 21.204962 # 2 
421 3 1 0.000000 -6.015000 -7.436825 14.350587 # 1 
422 3 2 0.000000 -6.085061 -8.010337 13.587431 # 2 
423 3 2 0.000000 -6.781563 -7.650481 14.882531 # 2 
424 3 1 0.000000 -6.015000 -7.436825 21.739412 # 1 
425 3 2 0.000000 -6.003295 -7.968179 22.535501 # 2 
426 3 2 0.000000 -6.047576 -6.533481 22.054277 # 2 
427 3 1 0.000000 -4.593174 -2.320587 18.045000 # 1 
428 3 2 0.000000 -4.475860 -2.894345 17.287853 # 2 
429 3 2 0.000000 -5.508999 -2.046115 17.998505 # 2 
430 3 1 0.000000 -4.593174 -9.709413 18.045000 # 1 
431 3 2 0.000000 -5.506230 -9.994772 18.011381 # 2 
432 3 2 0.000000 -4.492085 -9.138166 17.283625 # 2 
433 3 1 0.000000 -7.436825 -2.320587 18.045000 # 1 
434 3 2 0.000000 -8.021482 -1.565385 18.108862 # 2 
435 3 2 0.000000 -7.654514 -2.857715 18.806799 # 2 
436 3 1 0.000000 -7.436825 -9.709413 18.045000 # 1 
437 3 2 0.000000 -8.019766 -10.464763 18.121536 # 2 
438 3 2 0.000000 -7.637809 -9.172515 18.811535 # 2 
439 3 1 0.000000 -2.208948 -2.208948 21.851051 # 1 
440 3 2 0.000000 -2.050642 -1.382475 21.394857 # 2 
441 3 2 0.000000 -2.765673 -2.709485 21.254601 # 2 
442 3 1 0.000000 -9.821051 -9.821051 21.851051 # 1 
443 3 2 0.000000 -10.642817 -9.362722 22.026741 # 2 
444 3 2 0.000000 -9.324612 -9.219462 21.296188 # 2 
445 3 1 0.000000 -9.821051 -2.208948 14.238948 # 1 
446 3 2 0.000000 -10.643404 -2.666933 14.065116 # 2 
447 3 2 0.000000 -9.320756 -2.813671 14.786897 # 2 
448 3 1 0.000000 -2.208948 -9.821051 14.238948 # 1 
449 3 2 0.000000 -1.364686 -9.425254 14.022621 # 2 
450 3 2 0.000000 -2.597906 -10.035236 13.390969 # 2 
451 3 1 0.000000 -8.223948 -8.223948 20.253948 # 1 
452 3 2 0.000000 -8.625648 -7.377822 20.056620 # 2 
453 3 2 0.000000 -7.385647 -8.002839 20.659649 # 2 
454 3 1 0.000000 -3.806051 -3.806051 20.253948 # 1 
455 3 2 0.000000 -4.652194 -4.028677 20.642168 # 2 
456 3 2 0.000000 -4.025455 -3.415097 19.408224 # 2 
457 3 1 0.000000 -8.223948 -3.806051 15.836051 # 1 
458 3 2 0.000000 -7.376247 -4.016877 15.444661 # 2 
459 3 2 0.000000 -8.006750 -3.408678 16.679348 # 2 
460 3 1 0.000000 -3.806051 -8.223948 15.836051 # 1 
461 3 2 0.000000 -4.628896 -8.051144 15.378561 # 2 
462 3 2 0.000000 -3.308065 -8.776627 15.233731 # 2 
463 3 3 0.000000 -11.381086 -9.088803 18.320387 # 3 
464 3 4 0.000000 -11.744419 -10.081449 18.586365 # 4 
465 3 4 0.000000 -11.744419 -8.822825 17.327742 # 4 
466 3 5 0.000000 -5.912584 -5.924705 18.090639 # 5 
467 3 6 0.000000 -6.275918 -6.917350 18.356617 # 6 
468 3 6 0.000000 -6.275917 -5.658727 17.097994 # 6 
469 3 3 0.000000 -11.377924 -2.844216 17.847200 # 3 
470 3 4 0.000000 -11.741258 -3.836862 18.113180 # 4 
471 3 4 0.000000 -11.741257 -2.578238 16.854557 # 4 
472 3 3 0.000000 -2.992830 -5.615365 23.407757 # 3 
473 3 4 0.000000 -3.356164 -6.608010 23.673735 # 4 
474 3 4 0.000000 -3.356163 -5.349386 22.415112 # 4 
475 3 3 0.000000 -6.102736 -0.469360 15.034863 # 3 
476 3 4 0.000000 -6.466069 -1.462006 15.300841 # 4 
477 3 4 0.000000 -6.466069 -0.203381 14.042217 # 4 
478 3 3 0.000000 -5.530085 -0.438881 21.260811 # 3 
479 3 4 0.000000 -5.893418 -1.431526 21.526789 # 4 
480 3 4 0.000000 -5.893417 -0.172903 20.268166 # 4 
481 3 5 0.000000 -0.322031 -0.400788 23.822613 # 5 
482 3 6 0.000000 -0.685364 -1.393433 24.088591 # 6 
483 3 6 0.000000 -0.685364 -0.134810 22.829967 # 6 
484 3 3 0.000000 -9.107496 -6.569416 12.700569 # 3 
485 3 4 0.000000 -9.470830 -7.562061 12.966548 # 4 
486 3 4 0.000000 -9.470830 -6.303437 11.707924 # 4 
487 4 1 0.000000 -9.821051 2.208949 -9.821051 # 1 
488 4 2 0.000000 -10.665317 2.605643 -10.035716 # 2 
489 4 2 0.000000 -10.045447 1.368985 -9.420628 # 2 
490 4 1 0.000000 -12.030000 3.694413 -10.608174 # 1 
491 4 2 0.000000 -12.028532 4.489176 -10.074713 # 2 
492 4 2 0.000000 -12.027662 4.011569 -11.511301 # 2 
493 4 1 0.000000 -12.030000 6.015000 -9.022500 # 1 
494 4 2 0.000000 -12.781310 6.011566 -8.429413 # 2 
495 4 2 0.000000 -11.267489 6.017100 -8.443876 # 2 
496 4 1 0.000000 -2.208948 9.821052 -9.821051 # 1 
497 4 2 0.000000 -1.989884 10.663919 -9.423790 # 2 
498 4 2 0.000000 -2.613968 10.048270 -10.658048 # 2 
499 4 1 0.000000 -12.030000 8.335587 -10.608174 # 1 
500 4 2 0.000000 -12.098805 7.571612 -10.035601 # 2 
501 4 2 0.000000 -12.792676 8.870282 -10.387589 # 2 
502 4 1 0.000000 -2.208948 2.208949 -2.208948 # 1 
503 4 2 0.000000 -2.760315 2.707530 -2.811976 # 2 
504 4 2 0.000000 -2.034134 1.387057 -2.667387 # 2 
505 4 1 0.000000 -12.030000 3.694413 -1.421825 # 1 
506 4 2 0.000000 -12.798480 3.164992 -1.634858 # 2 
507 4 2 0.000000 -12.090148 4.450551 -2.005666 # 2 
508 4 1 0.000000 -12.030000 6.015000 -3.007500 # 1 
509 4 2 0.000000 -12.068148 6.808778 -2.473933 # 2 
510 4 2 0.000000 -12.829434 6.040629 -3.533313 # 2 
511 4 1 0.000000 -9.821051 9.821052 -2.208948 # 1 
512 4 2 0.000000 -10.664328 9.426987 -1.985723 # 2 
513 4 2 0.000000 -9.422132 10.028942 -1.364035 # 2 
514 4 1 0.000000 -12.030000 8.335587 -1.421825 # 1 
515 4 2 0.000000 -12.076694 8.055705 -0.507649 # 2 
516 4 2 0.000000 -12.788200 8.908500 -1.536434 # 2 
517 4 1 0.000000 -10.608174 0.000000 -8.335587 # 1 
518 4 2 0.000000 -11.523460 -0.048109 -8.059600 # 2 
519 4 2 0.000000 -10.490007 -0.757912 -8.908157 # 2 
520 4 1 0.000000 -9.022500 0.000000 -6.015000 # 1 
521 4 2 0.000000 -9.613894 0.001136 -6.767651 # 2 
522 4 2 0.000000 -9.602800 0.008403 -5.253808 # 2 
523 4 1 0.000000 -10.608174 0.000000 -3.694413 # 1 
524 4 2 0.000000 -10.453829 -0.762829 -3.137187 # 2 
525 4 2 0.000000 -10.440363 0.750963 -3.125093 # 2 
526 4 1 0.000000 -1.421825 0.000000 -8.335587 # 1 
527 4 2 0.000000 -2.002827 0.066893 -7.577830 # 2 
528 4 2 0.000000 -1.635995 0.764399 -8.870430 # 2 
529 4 1 0.000000 -3.007500 0.000000 -6.015000 # 1 
530 4 2 0.000000 -3.588605 -0.760617 -6.011817 # 2 
531 4 2 0.000000 -3.598128 0.753215 -6.022559 # 2 
532 4 1 0.000000 -1.421825 0.000000 -3.694413 # 1 
533 4 2 0.000000 -0.519897 0.002043 -4.014963 # 2 
534 4 2 0.000000 -1.958264 -0.002131 -4.487168 # 2 
535 4 1 0.000000 -8.335587 1.421826 -12.030000 # 1 
536 4 2 0.000000 -8.897637 1.592730 -11.274273 # 2 
537 4 2 0.000000 -8.897786 1.581207 -12.788130 # 2 
538 4 1 0.000000 -6.015000 3.007500 -12.030000 # 1 
539 4 2 0.000000 -6.771582 2.421142 -12.030106 # 2 
540 4 2 0.000000 -5.257683 2.422095 -12.027946 # 2 
541 4 1 0.000000 -3.694413 1.421826 -12.030000 # 1 
542 4 2 0.000000 -3.106040 1.534253 -12.776598 # 2 
543 4 2 0.000000 -3.962584 0.503914 -12.071879 # 2 
544 4 1 0.000000 -8.335587 10.608174 -12.030000 # 1 
545 4 2 0.000000 -8.059555 11.522849 -11.971623 # 2 
546 4 2 0.000000 -8.907520 10.481316 -11.273011 # 2 
547 4 1 0.000000 -6.015000 9.022500 -12.030000 # 1 
548 4 2 0.000000 -6.815265 9.547167 -12.006925 # 2 
549 4 2 0.000000 -6.052556 8.492372 -11.233893 # 2 
550 4 1 0.000000 -3.694413 10.608174 -12.030000 # 1 
551 4 2 0.000000 -4.458349 10.035933 -12.101928 # 2 
552 4 2 0.000000 -3.163049 10.396721 -12.797575 # 2 
553 4 1 0.000000 -3.806051 8.223948 -8.223948 # 1 
554 4 2 0.000000 -3.199973 8.719122 -8.775042 # 2 
555 4 2 0.000000 -3.354405 7.397496 -8.052995 # 2 
556 4 1 0.000000 -2.320587 6.015000 -7.436825 # 1 
557 4 2 0.000000 -2.038324 5.966816 -6.523459 # 2 
558 4 2 0.000000 -2.892490 5.256067 -7.551629 # 2 
559 4 1 0.000000 -8.223948 3.806051 -8.223948 # 1 
560 4 2 0.000000 -8.774971 3.204246 -8.724385 # 2 
561 4 2 0.000000 -8.063155 3.352477 -7.396514 # 2 
562 4 1 0.000000 -9.709413 6.015000 -7.436825 # 1 
563 4 2 0.000000 -9.143759 5.259592 -7.596904 # 2 
564 4 2 0.000000 -9.151161 6.773432 -7.608198 # 2 
565 4 1 0.000000 -3.806051 3.806051 -3.806051 # 1 
566 4 2 0.000000 -4.652854 4.009859 -3.409039 # 2 
567 4 2 0.000000 -4.025419 3.413564 -4.651074 # 2 
568 4 1 0.000000 -2.320587 6.015000 -4.593174 # 1 